# vtk DataFile Version 3.0
d-2__ created by libgimli-v1.5.5-9-gb2a1083f
ASCII
DATASET UNSTRUCTURED_GRID
POINTS 7111 double
198.84983217549	-31.832206899298	0
201.01610301969	-24.843482726711	0
193.298524694	-25.854583884537	0
175	0	0
181.87773093808	-5.8140325403582	0
181.25	0	0
13.891102711029	-66.082231867178	0
20.30928165115	-65.968670065339	0
18.038371231556	-58.628832448675	0
12.16212138994	-38.227237880312	0
5.1960335667284	-38.36499371198	0
8.2634477709599	-44.853994101008	0
177.80924138093	-22.742281500687	0
171.76480249023	-17.939140680878	0
170.17309173449	-24.644093002366	0
37.250459829031	-29.483010275746	0
31.259781625145	-21.93864599169	0
29.930797843096	-29.917312961245	0
436.63416850372	-8.3268534189659	0
432.85145684361	-13.400772818476	0
439.12026269413	-14.402236280473	0
57.251251801365	-16.507100118238	0
51.524391265448	-23.045542452987	0
59.897337581093	-24.594486005268	0
108.941199259	-43.266003667168	0
108.79853552028	-36.345829349723	0
101.49420634185	-38.062865187041	0
189.2527537981	-45.026414766842	0
190.99585076415	-38.846848620177	0
185.6715963993	-36.576140508704	0
451.64656270248	-74.363194005944	0
453.02286315851	-66.383513682292	0
446.95043315189	-70.247945436811	0
210.77530033668	-34.276587789397	0
217.15413668421	-37.323546119829	0
216.13161405013	-29.752870880386	0
160.83254056529	-4.9641015917386	0
156.25	0	0
155.21316024449	-8.4248519651627	0
213.62655087245	-23.160727480421	0
209.66950961703	-16.579012006948	0
207.32873957309	-23.62156966801	0
238.76527400621	-5.9846081118925	0
237.5	0	0
233.10780520299	-4.4913555501481	0
138.67822564303	-24.344254932823	0
143.11612566406	-31.195711783786	0
146.36204545608	-24.444628059521	0
475.00275063544	-14.699169114712	0
471.96449793873	-21.968957647451	0
479.85819644267	-19.829235382305	0
411.1564553147	-21.514025798093	0
413.91186313979	-26.833983956807	0
417.008140842	-19.789016719161	0
185.63904097451	-23.924716961485	0
183.26127148225	-17.294978969017	0
598.65565443707	-22.943987548395	0
602.12325617472	-18.168009463663	0
594.75901114395	-17.505723514948	0
187.69587163981	-29.991988701746	0
192.1979882785	-33.825991519997	0
190.20352500578	-5.4965311379838	0
195.04513169621	-11.064072995758	0
196.10328197082	-4.5231020759933	0
534.90452899098	-12.098809246361	0
540.37471893978	-14.17312829151	0
540.34796376187	-7.0582173264974	0
745.35953153098	-6.1243297792027	0
746.84819081597	-12.795703056005	0
751.70087397411	-6.985844030815	0
201.52959235452	-6.0694299482113	0
209.06818951138	-7.6827058045999	0
206.25	0	0
133.29638640209	-12.637518608305	0
138.98096599244	-6.3734951748146	0
131.87183711044	-4.7128347167984	0
547.11950833001	-11.596101226421	0
187.00209955241	-11.625185748247	0
190.2759285321	-18.042729632187	0
663.13503927498	-50.231293734948	0
661.85583346984	-46.272135925169	0
658.11407998899	-49.987805541914	0
832.82736881981	-57.016774389967	0
825.65600777104	-51.483472968695	0
825.16841058713	-58.613002534227	0
239.53902002319	-28.348420270652	0
232.20955287186	-32.120556799132	0
239.81466036622	-36.045749081762	0
247.2500417345	-16.469332722286	0
253.88054349447	-22.856458966405	0
254.47033823341	-15.478254899497	0
200	0	0
193.75	0	0
158.72386033026	-29.297621371065	0
153.22114143957	-23.483759453537	0
150.69050285861	-30.358213433057	0
264.75115140648	-63.395543044721	0
257.34177877008	-63.197445704386	0
260.48136326525	-68.327516815882	0
339.35859137954	-36.416792056174	0
346.75156495148	-34.603479878007	0
339.55822080692	-29.750926734425	0
175.04113444535	-6.9431073654564	0
295.53249258272	-27.112459892711	0
303.75074916836	-30.061710562862	0
299.9738170981	-22.599905244392	0
172.77301347595	-11.798110590223	0
167.89663732841	-6.6960536904125	0
166.83412341253	-13.453381247436	0
260.17197601564	-75.694939118503	0
254.93187770458	-69.207872234567	0
251.72473970242	-75.073204886247	0
981.48870077248	-37.023225394201	0
975.3567367467	-39.407042452196	0
981.60285562008	-44.047586605569	0
524.16646004437	-113.47278147059	0
520.78126769968	-118.72918326889	0
529.54731965287	-116.42326512338	0
162.5	0	0
502.6133178009	-7.9595972976778	0
493.45779270808	-5.9268414327697	0
496.41529314314	-13.875629250531	0
503.98287853819	-76.387858383682	0
506.21986708326	-84.131838854104	0
511.3281515383	-78.3799770627	0
212.5	0	0
216.41794554882	-6.2273730257178	0
551.10005029563	-31.18191655918	0
549.23653708696	-25.575123411816	0
544.63267361507	-28.957738774206	0
575.86791768043	-10.676620548084	0
571.94291006024	-5.5814669419177	0
569.26610018213	-11.828486954408	0
214.44157488012	-11.908430614297	0
220.17467230559	-11.852486202337	0
499.48612677499	-71.706955384321	0
504.10611810527	-70.525732091194	0
501.07723265841	-66.566499321866	0
154.69087196772	-16.68234628268	0
160.69866696969	-14.917821065382	0
594.85533379201	-9.9388830131444	0
599.81627620488	-12.964697305441	0
601.68775411642	-6.6055570332041	0
981.38883828707	-74.213897791867	0
982.36659032622	-67.09220253747	0
975.10602229177	-69.721225679297	0
575.16817148216	-47.578222848692	0
568.91731838143	-52.617205129235	0
576.80704985637	-56.4429154109	0
177.68830529445	-10.398760611291	0
181.44037934534	-12.092856462492	0
598.56250054971	-29.170587592327	0
605.11708494712	-24.78296168635	0
563.23365900327	-114.15900278409	0
557.92518892235	-119.90842618311	0
564.42712729176	-120.56989317074	0
206.66514526537	-58.36158935607	0
210.30333046278	-64.947563861755	0
212.70005246177	-58.916152058611	0
604.39751595686	-31.781348447039	0
187.5	0	0
636.31616872356	-22.15387357995	0
643.98853929696	-20.924781780266	0
640.18725777792	-15.716186610903	0
659.16417668152	-92.203590742212	0
667.08358176532	-92.15840058712	0
662.65526287042	-86.810289684455	0
150	0	0
712.06533659159	-136.58695501148	0
716.93277968489	-132.16214810762	0
710.84754433645	-131.11965577408	0
177.43410023242	-15.365305704888	0
519.54491360206	-26.90009629891	0
530.5285017001	-28.926618912485	0
526.64562928566	-21.022024180396	0
202.76298346981	-13.229950668862	0
805.76908395113	-33.750012702136	0
803.46146888047	-26.017668498742	0
798.6425384097	-31.745831521747	0
828.9590069136	-36.281933728629	0
828.77100525881	-43.139601471103	0
834.53006313022	-38.110491262305	0
197.64733242502	-18.697751791392	0
1001.669094365	-33.426016678462	0
996.77483816919	-37.242677453592	0
1002.3942904112	-39.708564833764	0
1087.7286208597	-32.401757370618	0
1093.9233143189	-36.011465793422	0
1093.7671998803	-28.321593015437	0
1009.7688044093	-88.337544560144	0
1007.4704659727	-95.279574649734	0
1014.8570662948	-95.854269587335	0
251.6783479171	-9.8000670928107	0
245.02156244054	-8.3005681321868	0
884.99190230454	-52.833843108077	0
888.84029703483	-48.982087364584	0
882.29777705446	-48.188255247188	0
756.97126054826	-111.16935377626	0
756.56587278043	-103.14128122985	0
749.94607442768	-107.78586595208	0
165.54613428658	-19.655049119787	0
164.1936354576	-25.401517126258	0
233.37404397455	-24.072105484225	0
227.53597348273	-20.115494392676	0
227.56324322354	-26.433545080276	0
181.71495617167	-29.812802863851	0
201.56896182301	-165.72894764769	0
207.18865734937	-168.83305853036	0
207.36713323042	-163.72748755088	0
162.29785697144	-9.6940550735721	0
227.15494805156	-12.745794183941	0
223.57901808195	-5.9454481134037	0
216.93460031706	-17.383453149848	0
205.45247775317	-29.854096894995	0
210.6499402458	-28.118216166462	0
233.55464155305	-10.065519064897	0
229.16253873363	-7.3588912487031	0
218.75	0	0
221.13117518621	-23.713059728609	0
222.57957143577	-17.138509069653	0
174.7340704318	-30.312250688139	0
225	0	0
125.1980020887	-9.2412293398027	0
125.8939337786	-16.957123989146	0
204.36958960429	-36.695091912367	0
146.47536546156	-7.893320324504	0
140.96971405643	-12.970856103051	0
233.52348146798	-16.779196034662	0
203.67817413768	-19.383880485886	0
228.41918122365	-3.5560319908571	0
172.91347968885	-37.457795171318	0
166.93013855929	-31.83535232727	0
179.21909689377	-43.266841123245	0
178.84864170515	-35.47932204729	0
150.30401459505	-13.160387485171	0
159.56073569059	-21.580650950484	0
196.90046064742	-39.981023815738	0
197.68522197639	-49.026535063231	0
205.17416268344	-44.703901009676	0
191.48367823339	-54.933073788823	0
212.58434911849	-38.692369072519	0
209.22448947547	-39.592628198986	0
213.25817999301	-43.610757625724	0
223.63867030066	-32.220107233843	0
240.97694800192	-43.967148098423	0
243.72588091358	-53.061952799117	0
247.7506325537	-45.776183933938	0
239.8977065508	-20.640860735387	0
223.32707911721	-38.874030163567	0
228.04512631201	-37.41608370577	0
239.66335202417	-13.04393642314	0
203.97217483914	-52.242507739311	0
220.52484446277	-43.975562406029	0
233.74528537867	-40.38721329728	0
245.86543689867	-32.12280687468	0
250.93649028104	-29.066151092365	0
246.20861927472	-24.96051977812	0
210.99699222633	-51.832828953068	0
198.73137476656	-72.105985253564	0
191.90877909064	-72.347551387291	0
195.11779013826	-77.137993335682	0
227.37428160683	-43.5134922248	0
217.45468627432	-49.28848444405	0
224.69982999418	-51.302955909514	0
256.75287658812	-30.299587600983	0
252.06663883674	-34.879733766135	0
257.88417176921	-36.261979892662	0
234.15024288234	-49.27312855134	0
231.72251418174	-77.748480902367	0
228.35137032687	-83.269244928691	0
235.08115557818	-84.691598665261	0
246.76669898161	-39.195033677615	0
260.33141721352	-47.655032791985	0
265.98310005912	-45.32343263056	0
262.01178918333	-40.745377260452	0
254.25689247629	-42.168292968343	0
199.42704326512	-57.326838968917	0
171.43059188296	-44.055789273291	0
166.21959518922	-39.906252842387	0
165.17218474913	-47.988685453627	0
202.76683581694	-65.053317246624	0
193.9708403348	-64.422665437222	0
182.8555299849	-52.629537646109	0
173.55226840658	-51.707014920715	0
205.4073087506	-87.970518277235	0
202.79801361222	-96.264038910875	0
209.39222436404	-93.315779291012	0
177.87565701346	-59.591878230123	0
224.02675678497	-59.653983239936	0
231.6128126358	-57.733064403127	0
207.4710849474	-73.323220121505	0
214.54393521743	-70.376758286924	0
217.7195464278	-63.73938497118	0
[...]
CELL_DATA 13850
SCALARS Coverage double 1
LOOKUP_TABLE default
-2.237229387576 -1.7731067772859 -2.9671960539126 -2.6950838160607 -2.1014785401861 -2.2439718786402 -1.8999278733409 -2.262441323406 -2.4629487463879 -2.4557790606928 -2.8214899715908 -2.3215642613944 -1.6304962212959 -2.1477971961125 -1.702847782176 -2.1829067441983 -2.0079079398685 -2.1737490583925 -2.0709092559991 -2.1266226073042 -2.270938363598 -1.6791778635701 -1.8216647366881 -1.9499216371982 -1.6270134527899 -1.740306103674 -1.8602910778411 -1.9112233282834 -2.5543376501814 -2.6551331408177 -2.3038100462494 -2.0946763356725 -1.1724793124471 -2.2148338391634 -2.7650205971353 -2.369721341085 -1.7970506661216 -2.2135037547986 -1.8819001743141 -2.8537553790604 -2.5318164804368 -3.2142145358127 -1.7550065429262 -2.0407072526537 -2.9188771618643 -1.7621477726015 -1.729311960707 -2.2234945913877 -1.8124146649317 -1.8630677499776 -2.8152729138915 -2.0616113387175 -2.0054089993486 -3.0237042573248 -2.5702547848255 -1.8432497497813 -2.2071099856975 -3.2249057464245 -2.7141616654957 -2.2512428377907 -1.7310863390144 -1.708930051547 -1.5773694186191 -2.0987015331918 -3.001202802778 -1.870642133389 -1.2161733014115 -3.31064454294 -1.9016273790264 -2.1599186046495 -1.9175977628089 -2.0144651885648 -2.2826218991626 -2.4044419509373 -2.0070647221681 -2.0586511509403 -2.8133772143441 -1.8035894018461 -3.4208731533338 -3.5646741792638 -2.0030685521393 -2.5973131538235 -1.6363430079023 -3.1496075936254 -2.1773004990259 -2.1192243448638 -2.1194492167173 -2.3051978656148 -1.9414441449271 -1.8982195183713 -3.4906336770606 -1.7777173150803 -1.8681347388757 -1.9585082585349 -2.0030253301888 -2.1191947753938 -2.2276540353693 -1.7982491470608 -1.7263974623694 -2.0961267694754 -2.2836469052198 -2.0465260788735 -2.2065573994541 -1.5379463955961 -2.2122560230714 -1.5924732847754 -1.7795063010579 -1.8879076406442 -2.3169106483377 -1.9255089316859 -1.8377447475459 -1.8090609510684 -2.0230565147282 -2.0224163593033 -1.8217162054082 -1.9703985246367 -1.7247108688138 -1.9028107761064 -1.2165655463489 -1.9455555799969 -1.81042584164 -1.9123233106073 -1.7824789790334 -2.0434321902678 -2.1656444848457 -2.1642774805977 -2.0387709052903 -1.7894322851984 -2.0968341147463 -2.3157153631168 -2.0188264054942 -2.3365813455591 -2.4040836609767 -2.2977938651776 -2.2184769455566 -1.9591771750777 -2.2532438416649 -2.157347032295 -1.8635558144536 -1.9490318607803 -2.0536335527703 -1.8215498761539 -2.0146990913471 -2.2521018421384 -2.1835881772632 -2.0185285816045 -2.218000322005 -1.8415946025888 -2.1841135999825 -2.04215993326 -2.3604797591609 -2.5100791581336 -2.369936269389 -2.5806828462272 -2.2799862386512 -2.4265409900925 -2.3702679426989 -2.2010137555247 -2.0957563355979 -2.2769306335198 -2.122466160579 -2.2058477063804 -2.0913365363531 -2.3228273374786 -2.224697729365 -2.4377528001689 -2.3820287731932 -2.2100690283968 -2.0555827825967 -2.545997908356 -2.1395030107659 -2.1461362682506 -2.1366646847148 -2.3652882066344 -1.9217209584592 -1.9783778498223 -1.9747520023071 -1.968887812262 -1.7795605556526 -1.9336244606893 -2.12185690034 -2.5183066668063 -2.5704027109419 -2.4412977015334 -2.2589583245153 -2.2462394375459 -2.2186545278744 -2.3102095816114 -2.3609076293619 -2.3870029509458 -2.2449848793916 -2.5742609996282 -2.4457461206798 -2.8562122332666 -2.4529014480683 -2.3775345619575 -2.4163208518185 -2.4310554526013 -2.4591653856295 -2.4210074541563 -2.4238255538156 -2.5441508689875 -2.5306660627932 -2.4401321433829 -2.3366376475041 -2.3856921039868 -2.3215011388431 -2.5207168846516 -2.5017930004243 -2.9382717475535 -2.5060948281985 -2.5580579250289 -2.4352959789929 -2.5079558824532 -2.4856631930802 -2.3868378985914 -2.1758333982706 -2.4017754910074 -2.6193666780563 -2.4126472611044 -2.4679617175512 -2.6552715314227 -2.7078480306775 -2.6294825786183 -2.634957699535 -2.691793951798 -2.7295267197252 -2.6636882256187 -2.5462542033931 -2.5675243905288 -3.0173295069884 -2.6469383856869 -2.6678629195912 -2.8181672021255 -2.7833118027765 -2.6550261315816 -2.5490325460688 -2.7344505007552 -2.7891003651496 -2.7363561869052 -2.7038343713972 -2.6085321966849 -2.7106866785676 -2.8038272647374 -2.8810242082985 -2.2422745944096 -3.3832944472388 -2.9541506878788 -2.614094958604 -2.7934542244831 -2.8142868977342 -2.7540747711915 -2.605205135905 -2.8085850614302 -2.8137343745361 -2.3632078274909 -2.3060616888456 -2.2938472056884 -2.2390838800008 -2.2845740100582 -2.409455232605 -2.2004414045368 -2.1341051287161 -2.354628557707 -2.2206830031085 -2.4671293322722 -2.4016953180046 -2.817681330674 -2.1285353489704 -2.4738074447905 -2.3113212520633 -2.2476892145461 -2.1100581223525 -2.6286279197262 -2.523524696825 -2.2645973274508 -2.2039715287875 -2.1379966282765 -1.7754619943106 -2.8668360830452 -2.8591833925944 -2.9455349262604 -2.6616553573561 -2.8570728219327 -2.8842196685652 -2.9364736654319 -2.9088102609359 -2.7537099863774 -2.7935280325995 -2.8598119711146 -2.7907238704167 -2.7242117612459 -2.6605218848325 -2.7421919206555 -2.6219051190943 -2.8053074641883 -2.5197213922425 -2.9273729165519 -2.8773253008105 -2.9661206099911 -2.9911831191065 -2.9014306035422 -2.9658033197874 -2.872914753393 -3.0195278200481 -2.9802154759161 -2.9182978461275 -2.9683048247181 -2.9736604449145 -2.977879265961 -3.0124383271413 -3.121248494076 -3.0065942482869 -3.0712508237905 -2.9412935290597 -3.0045490300548 -3.0035336257784 -2.9668698113015 -3.0487144169537 -3.0205536142475 -3.0534351801293 -3.0187416302057 -3.076293613796 -2.9225630282978 -2.8855088893701 -3.0597294085944 -1.9576796691885 -3.0982963364147 -3.1380176096871 -2.4812378007584 -2.6865188390478 -2.8741354211297 -2.7592887562837 -2.5665838776581 -2.6353346553405 -2.7753753502377 -2.1197092565009 -2.5895904263879 -2.592624180098 -2.1626009753205 -2.1274394702536 -2.1094367348154 -1.6880693593133 -1.7206809973023 -2.0319137717387 -2.8695888418276 -2.9060774798169 -2.9095700216883 -2.9450837346953 -3.0973106492948 -3.0700293391876 -2.9632095158954 -3.002658031339 -2.9663089130075 -3.1009848225933 -2.9952902958515 -2.9365352809249 -2.9606064796702 -2.9156845998675 -3.1550895559797 -3.0792664108317 -2.8921584183898 -2.837271296397 -3.1169205620078 -3.0837072262918 -3.0714578497392 -3.1007607753739 -3.1210429413225 -3.1628596195718 -3.1913980258568 -3.0910352094185 -3.1995418150322 -3.1138263625748 -2.5839971013318 -3.1706909978774 -3.1205255559267 -3.092495425511 -3.1983413814289 -3.1740595998719 -3.1530277449529 -3.2630648993173 -3.1460493517591 -3.115728625281 -3.1296964348696 -3.0991952123611 -3.0359077474659 -3.0468147450795 -3.2418993365787 -2.0053199869015 -3.1688790305868 -3.1194119668947 -3.1955105834181 -3.1433293868763 -2.1845348393839 -2.9531146984811 -3.2445966689908 -2.4628939582168 -2.0941781738313 -1.9579336235024 -2.0448908307781 -1.8628030883894 -1.8279108028201 -1.5785891758236 -1.9011033664663 -1.618971258592 -2.2283351076691 -2.0312097962268 -2.4764879188402 -2.218613024015 -2.7150060137914 -2.0919448473088 -2.3100437118804 -1.7486122901631 -3.0195401995836 -3.1618371710608 -2.9988557980698 -3.0481172293149 -2.9539227488074 -2.9091351028575 -2.9926715151663 -2.9863521732539 -3.0429868443892 -3.0518911219262 -2.9499090828801 -2.1805259590404 -3.0634316591963 -3.0140273892622 -3.0123582313973 -3.0568984056491 -2.9276826177918 -2.7258544014979 -2.8504831442091 -2.7636704150652 -2.6779893168257 -2.7439292362019 -2.9806709585346 -3.0262760057489 -2.0484303796037 -1.5936060807746 -1.8974957813582 -2.0175059530125 -1.9900237735916 -1.1221306279448 -1.716486136131 -1.5257610278485 -1.8082268767224 -1.7628438267265 -1.7541682499809 -1.7722497006046 -1.8320610903108 -1.8034324016225 -1.8467116819966 -2.4625683332979 -2.7934794863169 -3.0447088360842 -3.1134290026695 -3.075445506517 -3.0920127752443 -3.4494288152205 -3.1303060724437 -3.0697899909454 -3.1060677562676 -2.7282074861333 -3.2148297492956 -3.1620386466883 -3.1231831433166 -3.1433790055726 -3.1375240316936 -3.3317711344767 -3.21061675543 -3.1689395313625 -3.1947486241121 -3.1878005312479 -3.2007328582861 -2.8931560034423 -2.8306509500623 -2.3178276005109 -2.6940044884614 -2.78894054605 -2.8241660670636 -2.7695652272844 -2.7225966748587 -2.8312076496223 -2.7855067819435 -2.9338755650633 -2.7129847759517 -2.8644364251241 -2.8876242595358 -2.8096289774708 -2.3926074416294 -1.9539115990501 -1.810404643516 -1.8534004904471 -1.8712367351268 -1.8330961413402 -1.5737833091016 -1.9257139911952 -1.8178936060158 -1.0988824333822 -1.4814580297896 -1.9898614759085 -1.7813522641225 -1.9125970826634 -1.7568177325848 -1.8216913502862 -1.9737613388924 -2.068461108196 -2.1472761181392 -1.7296789594832 -2.1653800814914 -1.8578191852112 -1.7420522008026 -2.2331124084678 -2.1342382945254 -2.1847391192906 -1.9968017693707 -1.9149368749782 -1.5985984668874 -2.6403261628177 -2.7604930060732 -2.2386437783964 -2.2468951470721 -2.3655207688899 -1.9902383974338 -2.2905957919536 -1.7877396900495 -2.6368643504662 -1.8027736244962 -2.2832716609538 -2.1155706415667 -2.7968350291645 -2.1280788268862 -1.7588453832196 -1.2059886536624 -2.3756025758333 -2.3471234275539 -2.5355286824134 -2.7552093300348 -1.977696059077 -1.8978512244472 -2.1947627618495 -2.0593733686605 -3.220356846605 -3.2317287694115 -3.2603900976329 -3.2857400986715 -3.2685750877697 -3.2012359509284 -3.2361098447131 -3.2476368249526 -3.2364521928552 -3.2382761902666 -3.2576966779877 -3.274905508762 -3.2772130670112 -3.215271587775 -3.3382651635901 -3.2524657532603 -3.1642943991468 -2.82807667456 -3.3292187759642 -3.2673853267865 -3.3137495241918 -3.3160264749188 -2.7940983738667 -2.5089426643732 -2.835489432875 -2.8544073204355 -2.903727236318 -3.1089158677166 -2.8396733742056 -2.787293948623 -2.7833915973929 -2.442808993745 -2.7022670800106 -2.693840913195 -2.6843092728212 -2.6355517688257 -2.5816932366897 -2.5390859272555 -2.6121412908657 -2.38310587548 -2.6787428574139 -2.697830720799 -2.3456803348221 -2.3665131828408 -2.4480477948817 -2.3811330197964 -2.0143544611654 -2.0967237032033 -1.8945299664532 -1.6127245928574 -1.9281912659441 -2.0539616973996 -1.3208199529144 -2.1166985102734 -1.9812232372681 -1.7510895323586 -3.2853311473165 -3.2580006399341 -3.3417230945104 -3.3409656411177 -3.2152363957858 -3.2409525076739 -2.8623070930017 -2.2156260483762 -2.3874637599343 -2.5043429238938 -2.5372787216286 -2.4419045231555 -2.7539936327005 -2.5942872027871 -2.7366892573066 -2.6643615158932 -2.5404660786417 -2.5763583517536 -2.3487947680188 -1.7831662918532 -1.7551705852689 -1.6456624583774 -1.884166684474 -1.8312607309854 -1.8374809137141 -1.7008036216655 -1.7690311559518 -1.6994534501973 -1.827231470441 -1.8871431122919 -1.9308735059121 -1.9137065924738 -1.8182248583984 -2.033245918891 -2.0351094485709 -1.9534297845524 -1.8657554573434 -1.993720068086 -1.9484218452338 -2.0957913618329 -1.8243443778755 -2.2589657819226 -2.8262139810528 -1.7597609898544 -2.0466459429748 -2.1899788883575 -2.4851439213301 -3.3563817521733 -2.9470893438335 -2.8293346859035 -2.766034246771 -3.1208872341974 -1.9272090856819 -2.8223598860052 -2.9474720552877 -2.8329834247744 -2.8467320443694 -2.9205731391404 -2.9955530224627 -2.9635556348122 -2.8837487360391 -3.0361002058694 -2.9874019798917 -2.9136395170641 -2.9796601662297 -3.0068876624921 -2.8885093038518 -2.9529262231022 -2.9738459182728 -2.9957342500387 -3.0494682575926 -3.0359630301117 -2.3680132000511 -3.0615781706801 -3.240470990728 -2.9258423451018 -3.0624113588151 -3.0058374874908 -3.0298350423365 -3.047479299792 -3.169926734634 -2.9072368508254 -2.9729241892719 -3.0155094919187 -3.0725337571606 -3.1169434425978 -3.1375829054554 -3.1466193429632 -3.2521354962156 -2.7350841761345 -2.2016404261478 -3.3166221811804 -2.0989240114299 -3.2905955713149 -3.3493832786192 -3.3755919480949 -3.3136660391324 -3.2367312268756 -3.2968617552012 -3.4451515321769 -3.304517824836 -3.3315380844049 -3.5052608689544 -3.2522890556365 -3.388989581444 -3.5057599222242 -2.3050961203007 -2.9954848415687 -3.0169256055411 -3.0602043485412 -3.4898883856508 -3.1634566079704 -2.7993197557637 -2.6389886559613 -2.9802051501764 -2.1759052640245 -2.5864986266283 -2.5442413421399 -2.8329249913564 -2.9163662823406 -2.072029207405 -1.9768724052225 -2.2133252088418 -2.306881611739 -1.8919334192559 -1.893058646072 -2.0500184538156 -1.4201146374103 -2.1437401868333 -2.969650314243 -2.8563945911618 -2.7889718671042 -1.5730491927591 -1.9404856032135 -2.4452221128342 -1.2498064038223 -3.4367506944916 -3.080784675695 -3.2147995479823 -3.2195593437162 -3.3224106415339 -3.3934753264933 -3.4109770154596 -3.5247803261056 -3.0149022374491 -2.9426907334445 -3.0273154690177 -3.0277703895553 -3.0394046398483 -2.9836868879927 -3.1128741764788 -2.7408699192957 -2.9485206986769 -2.9212647446435 -2.9704489255063 -2.8781306739471 -3.0100883240564 -2.4738668532385 -3.0074420905905 -2.8535444407973 -3.0326432020951 -2.9560809282751 -2.823194648383 -2.4914357588026 -3.0886278235084 -3.037467189504 -3.0717124106722 -3.0269572317017 -3.5525969301069 -3.5808357139549 -3.013357653255 -2.6878175562976 -2.4639036442704 -2.3918497159429 -2.4948840826548 -2.5425793177808 -2.4908988650678 -2.5793693786413 -2.6109917982672 -2.6761476128327 -2.2621720648049 -2.2669316541982 -2.3689728816763 -2.3156780727112 -2.4663102368741 -2.2783402655839 -2.4615752437526 -2.3784310999374 -2.4877715840621 -2.5734799268817 -2.6539245822605 -2.5764124312599 -2.9231806211122 -2.4146873400702 -3.4269794706445 -3.2765348136322 -3.5176424581286 -3.5344202657796 -3.1132902252366 -3.5693107936989 -3.5524159202069 -3.5624262667463 -3.2595913569081 -3.1670375090014 -3.5264407395883 -3.4640612450882 -3.517975399718 -3.3439580394731 -3.5369563527577 -3.1197221238386 -3.2149074394379 -3.2036258227579 -3.541453243819 -3.5665825866242 -3.2744066729714 -3.6035230017426 -3.113108642262 -3.4609904857066 -3.6513713250447 -3.8334346092803 -3.1610001405355 -3.179406983276 -3.294994496193 -3.3096015940284 -3.2981497587387 -3.3545271367925 -3.2834732783649 -3.3045859004166 -3.3444627984089 -3.3477013076662 -3.2998362578758 -3.3706202195439 -3.0811137253724 -3.5043989777192 -3.5124229970879 -3.2266334508868 -3.3817288516186 -3.5000973939687 -3.4055032621053 -3.4372079869883 -3.5114416092453 -3.5183195278378 -3.3853454494935 -3.4548877997473 -3.3692197694852 -3.420155062186 -3.4123028272076 -3.4532040733267 -3.3538028419924 -3.3738844100422 -3.3701527300203 -3.3746703140001 -3.4122132718111 -3.3951877426111 -3.4006837211806 -3.4975026253522 -3.4174147927814 -3.4400951043766 -3.4684386603599 -3.5359671346266 -3.4205120197491 -3.1358484430614 -3.4921136848503 -3.4844337123132 -3.4363727947489 -3.4788643926582 -3.3381641459671 -3.4979116215316 -3.0672517845018 -1.8882258137271 -2.629326440511 -2.4967006112808 -2.8375360412244 -2.5552531449152 -2.4753475334492 -2.4167033393361 -2.5549947908446 -2.715628869262 -2.5882430784374 -2.5866881434786 -2.5561961522663 -2.6325611222247 -2.5886503931186 -2.6357071394703 -2.8626665449684 -2.6403136352636 -2.4258124580652 -2.3657464138963 -2.6860568291487 -2.6304488460939 -2.4433691055335 -2.2985944977866 -2.8544098384841 -2.5591620604878 -2.5587494871923 -2.1967664686726 -2.6217526790397 -2.5284997393718 -2.7318079006705 -2.7402674500779 -2.9344632173489 -2.9739874801391 -2.8609889482132 -2.7407324779894 -2.6832285764595 -2.8082745503771 -2.948269162342 -2.9834007748163 -3.5978842077913 -3.1400465669235 -3.5543128176312 -3.5958592845874 -3.5453542374863 -3.7475055983689 -3.6868938109515 -3.5730438498566 -3.6342696998251 -3.0934851171064 -3.5523629182104 -3.4786594138683 -3.2970632275489 -2.7669355130771 -3.5295251793196 -3.7426399298105 -3.608890216121 -3.1789785064363 -3.0232259553984 -3.5341988654722 -3.482780574013 -3.5168581969954 -3.4187936891361 -3.5577611335282 -3.5603798664066 -3.3949725841886 -3.3847193599029 -3.2673642624488 -3.8047424067173 -3.3872064393681 -3.4234855675923 -3.4373942246236 -3.4637449980084 -3.4613464784633 -3.4319566814637 -3.3785954969469 -3.7419278520727 -3.5948572943223 -3.6710751677357 -3.4246974423858 -3.4706824645842 -2.3449024456337 -3.6483029851429 -3.5817248658569 -3.227871903149 -3.54610047784 -3.0707026311239 -3.5192582171545 -3.3927154386678 -3.0415720394876 -2.9720921567928 -3.4802435148547 -3.1751552790564 -2.9361829277946 -2.7672154224039 -3.0414289408931 -3.0802512018363 -3.0651865823005 -3.2756346205559 -2.8880556461132 -3.0607592324612 -3.4612359484794 -3.2197500838732 -3.5750031192789 -3.1128189520682 -3.1208338978092 -3.4907490676065 -3.1372220996073 -3.281700335604 -3.3543264162188 -3.5260789843682 -3.0903643572195 -3.1792651778715 -3.1161520632447 -2.9912524042282 -2.8818793095794 -3.0276343314975 -2.9183962268636 -2.8705518259189 -2.9435807423767 -3.0902076634383 -2.7316858301045 -2.9148355187865 -2.8610242945247 -3.4919887744329 -2.0628277684717 -2.8755404003422 -2.8030981143424 -3.0176203316868 -2.6061059161789 -2.8711799875168 -2.8050468693934 -2.7883978417155 -2.793895256175 -2.7348453688685 -2.816639312602 -2.9582791764024 -2.8566048324222 -3.1826740077744 -3.0665078946293 -2.8052281348641 -2.713014013437 -2.5848564755852 -2.5072146357346 -2.4515067231241 -2.437352658429 -2.5182540507981 -2.514981367363 -2.4653146095294 -2.5240964692668 -2.7342216841041 -2.7856685338677 -2.8065927297202 -2.7679861229069 -3.1661070745224 -3.1013212967929 -3.4678538511284 -3.4306653665114 -3.2192003750679 -3.2605240233484 -3.4437647392734 -3.4334427534333 -2.4566348231552 -3.1885214263598 -3.1571657691774 -3.1497028573437 -3.068990812367 -3.0833062766662 -3.0820737751993 -3.0997221108811 -3.0985666023091 -3.1409269374065 -3.2249214638811 -3.1035837453627 -3.1833428542509 -3.1539849198667 -3.255025242165 -3.1843352702787 -3.1421694331383 -3.0931517584545 -3.1608078903277 -3.151866812638 -3.2387714750432 -3.2025185588439 -3.1981050526177 -3.1924720756338 -3.2738563320414 -3.197346361702 -3.1302570797682 -3.1176212825867 -3.3372426878367 -3.1973827244758 -3.1850391476012 -3.1653970586725 -3.2475373804119 -3.1989198898808 -3.1771161035519 -3.2139443734642 -3.2214347733039 -3.2204884965256 -3.2293530269385 -3.1867953027601 -3.1988676751396 -3.2188444573897 -3.2449112253887 -3.2064432932188 -3.2984482771302 -3.2359299691084 -3.2261343424647 -3.1703472419273 -3.2658215047346 -3.2524381568631 -3.2708128458214 -3.1492246637954 -3.1906854303944 -3.209545938916 -3.2557094444126 -3.26885038577 -3.2690664691498 -3.2867107307717 -3.151429496774 -3.1516185967344 -3.2835559307812 -3.0643315448921 -3.3022251364733 -3.2028516310047 -3.1615667460884 -3.0721461543557 -3.2264914246233 -3.1201025978562 -3.1029715656239 -3.1426981171752 -3.0481310758758 -3.0614008529495 -3.0187353713504 -3.1115316230388 -3.0414223743962 -2.9967898948206 -3.1494040677926 -3.0840324932595 -3.1253397639604 -3.0625258035546 -3.1919947868363 -3.0495260993057 -3.1086412028691 -3.116669290477 -3.3760116714218 -3.3409899857095 -3.1650236223252 -1.8396159108573 -3.540736107442 -3.5977935870044 -3.2754491759566 -3.4080025737758 -2.6077875048877 -2.5546975297555 -2.6429693608867 -2.6903948962205 -2.5511167257538 -2.1229768476604 -2.6043599732486 -2.7497490833234 -2.6125070726584 -2.5092426742349 -2.8864867961083 -2.924774424194 -1.7505715391802 -2.0858440488251 -3.0942721798635 -3.148536565143 -3.1219951296629 -3.0937077043245 -3.0806772539546 -3.1298498364213 -3.2740894815685 -3.2563919723817 -3.3736342880501 -3.3162964432074 -3.4444555626202 -3.486470327734 -3.2852753819563 -3.2998807454861 -3.3235578263603 -3.3656202647944 -3.3014881748127 -3.3125766746515 -3.3928274341718 -3.3551829950918 -3.3296999598307 -3.380105410375 -3.6699699558742 -3.3834939513128 -3.3508627976199 -3.3982378380147 -3.3207182349866 -3.3161471519099 -3.5387110437519 -3.3962063505889 -3.672710227634 -3.368397593886 -3.228223651377 -3.3126398350972 -3.2458151451205 -3.2838294010869 -3.2392422256877 -3.1173499897221 -3.5254749769337 -3.5426998704823 -3.6971971475297 -3.5574131977442 -3.5275870429534 -3.5835029700333 -3.5702895217321 -3.511559884491