# vtk DataFile Version 3.0
d-2__ created by libgimli-v1.5.5-9-gb2a1083f
ASCII
DATASET UNSTRUCTURED_GRID
POINTS 7111 double
198.84983217549	-31.832206899298	0
201.01610301969	-24.843482726711	0
193.298524694	-25.854583884537	0
175	0	0
181.87773093808	-5.8140325403582	0
181.25	0	0
13.891102711029	-66.082231867178	0
20.30928165115	-65.968670065339	0
18.038371231556	-58.628832448675	0
12.16212138994	-38.227237880312	0
5.1960335667284	-38.36499371198	0
8.2634477709599	-44.853994101008	0
177.80924138093	-22.742281500687	0
171.76480249023	-17.939140680878	0
170.17309173449	-24.644093002366	0
37.250459829031	-29.483010275746	0
31.259781625145	-21.93864599169	0
29.930797843096	-29.917312961245	0
436.63416850372	-8.3268534189659	0
432.85145684361	-13.400772818476	0
439.12026269413	-14.402236280473	0
57.251251801365	-16.507100118238	0
51.524391265448	-23.045542452987	0
59.897337581093	-24.594486005268	0
108.941199259	-43.266003667168	0
108.79853552028	-36.345829349723	0
101.49420634185	-38.062865187041	0
189.2527537981	-45.026414766842	0
190.99585076415	-38.846848620177	0
185.6715963993	-36.576140508704	0
451.64656270248	-74.363194005944	0
453.02286315851	-66.383513682292	0
446.95043315189	-70.247945436811	0
210.77530033668	-34.276587789397	0
217.15413668421	-37.323546119829	0
216.13161405013	-29.752870880386	0
160.83254056529	-4.9641015917386	0
156.25	0	0
155.21316024449	-8.4248519651627	0
213.62655087245	-23.160727480421	0
209.66950961703	-16.579012006948	0
207.32873957309	-23.62156966801	0
238.76527400621	-5.9846081118925	0
237.5	0	0
233.10780520299	-4.4913555501481	0
138.67822564303	-24.344254932823	0
143.11612566406	-31.195711783786	0
146.36204545608	-24.444628059521	0
475.00275063544	-14.699169114712	0
471.96449793873	-21.968957647451	0
479.85819644267	-19.829235382305	0
411.1564553147	-21.514025798093	0
413.91186313979	-26.833983956807	0
417.008140842	-19.789016719161	0
185.63904097451	-23.924716961485	0
183.26127148225	-17.294978969017	0
598.65565443707	-22.943987548395	0
602.12325617472	-18.168009463663	0
594.75901114395	-17.505723514948	0
187.69587163981	-29.991988701746	0
192.1979882785	-33.825991519997	0
190.20352500578	-5.4965311379838	0
195.04513169621	-11.064072995758	0
196.10328197082	-4.5231020759933	0
534.90452899098	-12.098809246361	0
540.37471893978	-14.17312829151	0
540.34796376187	-7.0582173264974	0
745.35953153098	-6.1243297792027	0
746.84819081597	-12.795703056005	0
751.70087397411	-6.985844030815	0
201.52959235452	-6.0694299482113	0
209.06818951138	-7.6827058045999	0
206.25	0	0
133.29638640209	-12.637518608305	0
138.98096599244	-6.3734951748146	0
131.87183711044	-4.7128347167984	0
547.11950833001	-11.596101226421	0
187.00209955241	-11.625185748247	0
190.2759285321	-18.042729632187	0
663.13503927498	-50.231293734948	0
661.85583346984	-46.272135925169	0
658.11407998899	-49.987805541914	0
832.82736881981	-57.016774389967	0
825.65600777104	-51.483472968695	0
825.16841058713	-58.613002534227	0
239.53902002319	-28.348420270652	0
232.20955287186	-32.120556799132	0
239.81466036622	-36.045749081762	0
247.2500417345	-16.469332722286	0
253.88054349447	-22.856458966405	0
254.47033823341	-15.478254899497	0
200	0	0
193.75	0	0
158.72386033026	-29.297621371065	0
153.22114143957	-23.483759453537	0
150.69050285861	-30.358213433057	0
264.75115140648	-63.395543044721	0
257.34177877008	-63.197445704386	0
260.48136326525	-68.327516815882	0
339.35859137954	-36.416792056174	0
346.75156495148	-34.603479878007	0
339.55822080692	-29.750926734425	0
175.04113444535	-6.9431073654564	0
295.53249258272	-27.112459892711	0
303.75074916836	-30.061710562862	0
299.9738170981	-22.599905244392	0
172.77301347595	-11.798110590223	0
167.89663732841	-6.6960536904125	0
166.83412341253	-13.453381247436	0
260.17197601564	-75.694939118503	0
254.93187770458	-69.207872234567	0
251.72473970242	-75.073204886247	0
981.48870077248	-37.023225394201	0
975.3567367467	-39.407042452196	0
981.60285562008	-44.047586605569	0
524.16646004437	-113.47278147059	0
520.78126769968	-118.72918326889	0
529.54731965287	-116.42326512338	0
162.5	0	0
502.6133178009	-7.9595972976778	0
493.45779270808	-5.9268414327697	0
496.41529314314	-13.875629250531	0
503.98287853819	-76.387858383682	0
506.21986708326	-84.131838854104	0
511.3281515383	-78.3799770627	0
212.5	0	0
216.41794554882	-6.2273730257178	0
551.10005029563	-31.18191655918	0
549.23653708696	-25.575123411816	0
544.63267361507	-28.957738774206	0
575.86791768043	-10.676620548084	0
571.94291006024	-5.5814669419177	0
569.26610018213	-11.828486954408	0
214.44157488012	-11.908430614297	0
220.17467230559	-11.852486202337	0
499.48612677499	-71.706955384321	0
504.10611810527	-70.525732091194	0
501.07723265841	-66.566499321866	0
154.69087196772	-16.68234628268	0
160.69866696969	-14.917821065382	0
594.85533379201	-9.9388830131444	0
599.81627620488	-12.964697305441	0
601.68775411642	-6.6055570332041	0
981.38883828707	-74.213897791867	0
982.36659032622	-67.09220253747	0
975.10602229177	-69.721225679297	0
575.16817148216	-47.578222848692	0
568.91731838143	-52.617205129235	0
576.80704985637	-56.4429154109	0
177.68830529445	-10.398760611291	0
181.44037934534	-12.092856462492	0
598.56250054971	-29.170587592327	0
605.11708494712	-24.78296168635	0
563.23365900327	-114.15900278409	0
557.92518892235	-119.90842618311	0
564.42712729176	-120.56989317074	0
206.66514526537	-58.36158935607	0
210.30333046278	-64.947563861755	0
212.70005246177	-58.916152058611	0
604.39751595686	-31.781348447039	0
187.5	0	0
636.31616872356	-22.15387357995	0
643.98853929696	-20.924781780266	0
640.18725777792	-15.716186610903	0
659.16417668152	-92.203590742212	0
667.08358176532	-92.15840058712	0
662.65526287042	-86.810289684455	0
150	0	0
712.06533659159	-136.58695501148	0
716.93277968489	-132.16214810762	0
710.84754433645	-131.11965577408	0
177.43410023242	-15.365305704888	0
519.54491360206	-26.90009629891	0
530.5285017001	-28.926618912485	0
526.64562928566	-21.022024180396	0
202.76298346981	-13.229950668862	0
805.76908395113	-33.750012702136	0
803.46146888047	-26.017668498742	0
798.6425384097	-31.745831521747	0
828.9590069136	-36.281933728629	0
828.77100525881	-43.139601471103	0
834.53006313022	-38.110491262305	0
197.64733242502	-18.697751791392	0
1001.669094365	-33.426016678462	0
996.77483816919	-37.242677453592	0
1002.3942904112	-39.708564833764	0
1087.7286208597	-32.401757370618	0
1093.9233143189	-36.011465793422	0
1093.7671998803	-28.321593015437	0
1009.7688044093	-88.337544560144	0
1007.4704659727	-95.279574649734	0
1014.8570662948	-95.854269587335	0
251.6783479171	-9.8000670928107	0
245.02156244054	-8.3005681321868	0
884.99190230454	-52.833843108077	0
888.84029703483	-48.982087364584	0
882.29777705446	-48.188255247188	0
756.97126054826	-111.16935377626	0
756.56587278043	-103.14128122985	0
749.94607442768	-107.78586595208	0
165.54613428658	-19.655049119787	0
164.1936354576	-25.401517126258	0
233.37404397455	-24.072105484225	0
227.53597348273	-20.115494392676	0
227.56324322354	-26.433545080276	0
181.71495617167	-29.812802863851	0
201.56896182301	-165.72894764769	0
207.18865734937	-168.83305853036	0
207.36713323042	-163.72748755088	0
162.29785697144	-9.6940550735721	0
227.15494805156	-12.745794183941	0
223.57901808195	-5.9454481134037	0
216.93460031706	-17.383453149848	0
205.45247775317	-29.854096894995	0
210.6499402458	-28.118216166462	0
233.55464155305	-10.065519064897	0
229.16253873363	-7.3588912487031	0
218.75	0	0
221.13117518621	-23.713059728609	0
222.57957143577	-17.138509069653	0
174.7340704318	-30.312250688139	0
225	0	0
125.1980020887	-9.2412293398027	0
125.8939337786	-16.957123989146	0
204.36958960429	-36.695091912367	0
146.47536546156	-7.893320324504	0
140.96971405643	-12.970856103051	0
233.52348146798	-16.779196034662	0
203.67817413768	-19.383880485886	0
228.41918122365	-3.5560319908571	0
172.91347968885	-37.457795171318	0
166.93013855929	-31.83535232727	0
179.21909689377	-43.266841123245	0
178.84864170515	-35.47932204729	0
150.30401459505	-13.160387485171	0
159.56073569059	-21.580650950484	0
196.90046064742	-39.981023815738	0
197.68522197639	-49.026535063231	0
205.17416268344	-44.703901009676	0
191.48367823339	-54.933073788823	0
212.58434911849	-38.692369072519	0
209.22448947547	-39.592628198986	0
213.25817999301	-43.610757625724	0
223.63867030066	-32.220107233843	0
240.97694800192	-43.967148098423	0
243.72588091358	-53.061952799117	0
247.7506325537	-45.776183933938	0
239.8977065508	-20.640860735387	0
223.32707911721	-38.874030163567	0
228.04512631201	-37.41608370577	0
239.66335202417	-13.04393642314	0
203.97217483914	-52.242507739311	0
220.52484446277	-43.975562406029	0
233.74528537867	-40.38721329728	0
245.86543689867	-32.12280687468	0
250.93649028104	-29.066151092365	0
246.20861927472	-24.96051977812	0
210.99699222633	-51.832828953068	0
198.73137476656	-72.105985253564	0
191.90877909064	-72.347551387291	0
195.11779013826	-77.137993335682	0
227.37428160683	-43.5134922248	0
217.45468627432	-49.28848444405	0
224.69982999418	-51.302955909514	0
256.75287658812	-30.299587600983	0
252.06663883674	-34.879733766135	0
257.88417176921	-36.261979892662	0
234.15024288234	-49.27312855134	0
231.72251418174	-77.748480902367	0
228.35137032687	-83.269244928691	0
235.08115557818	-84.691598665261	0
246.76669898161	-39.195033677615	0
260.33141721352	-47.655032791985	0
265.98310005912	-45.32343263056	0
262.01178918333	-40.745377260452	0
254.25689247629	-42.168292968343	0
199.42704326512	-57.326838968917	0
171.43059188296	-44.055789273291	0
166.21959518922	-39.906252842387	0
165.17218474913	-47.988685453627	0
202.76683581694	-65.053317246624	0
193.9708403348	-64.422665437222	0
182.8555299849	-52.629537646109	0
173.55226840658	-51.707014920715	0
205.4073087506	-87.970518277235	0
202.79801361222	-96.264038910875	0
209.39222436404	-93.315779291012	0
177.87565701346	-59.591878230123	0
224.02675678497	-59.653983239936	0
231.6128126358	-57.733064403127	0
207.4710849474	-73.323220121505	0
214.54393521743	-70.376758286924	0
217.7195464278	-63.73938497118	0
[...]
CELL_DATA 13850
SCALARS Coverage double 1
LOOKUP_TABLE default
-2.7944211090137 -2.355682224325 -3.6961989814896 -3.5534037492406 -2.7328066032822 -3.2769907670678 -2.1860023034277 -3.1557983160326 -3.2030020421261 -3.0161280029905 -3.131706478497 -2.8857080233921 -2.2518612341301 -2.6853557226846 -2.1740726343234 -2.888819567724 -2.2916552967366 -2.4581877020098 -2.7068992493445 -2.4374530745859 -2.8523520218011 -2.2441047761669 -2.1066172417283 -2.4625357174233 -2.1393500210289 -2.4827283877198 -2.1583175288442 -2.5258107489886 -2.938059280813 -3.2991198823344 -2.8178212810555 -2.5762353703561 -1.7005903699977 -2.8809783991554 -3.2604158460683 -2.7198817688852 -2.3882851215298 -2.6408817999201 -2.5026440655012 -3.3576559279928 -3.538771196082 -3.4723169655032 -2.3626222679409 -2.2185599873829 -3.1973009228713 -2.3419533383916 -2.2365359259489 -2.5132737990469 -2.1139482796498 -2.3747667845436 -3.1013599633623 -2.6508627360797 -2.3278821829185 -3.7544255870076 -2.9323972602997 -2.4462813874701 -2.5199662471002 -3.5131908026089 -3.2706800512598 -2.5695538844409 -2.2988621510247 -2.2753614604638 -2.1249932605688 -2.4499242982225 -3.4177740705665 -2.4614526974469 -1.854154541308 -3.8059365164717 -2.5189979543998 -2.4365888691837 -2.4298868700572 -2.5472054631054 -2.8435546269801 -3.0744384873424 -2.6484317454261 -2.6027685688767 -3.5555242462126 -2.4075811315566 -4.1282222293981 -3.9953070689683 -2.5093527245693 -3.371516288443 -2.1912477113848 -3.6917926205912 -2.7916890973181 -2.6586023841654 -2.7052797003247 -2.9104195395718 -2.5669489536849 -2.511738962338 -4.0753405402353 -2.3963198667928 -2.3747990277858 -2.5863891630928 -2.5316686180623 -2.7423667889942 -2.7796088009524 -2.2872825120647 -2.2264818613819 -2.7259655452237 -2.848564419314 -2.5816673441657 -2.8092563404627 -2.0853645099418 -2.8422397746396 -2.1043610947354 -2.2668286800981 -2.6587053094152 -2.8721003079473 -2.4427506281816 -2.4480966201102 -2.3208089193972 -2.6342243960929 -2.5342453797986 -2.3248693228838 -2.5785851905612 -2.4820750648559 -2.5138780005104 -1.7338918314564 -2.5669830160647 -2.3991192101671 -2.4146367022034 -2.2782928101159 -2.5870755662603 -2.7254213571627 -2.7107206048611 -2.6691061153911 -2.2733501087037 -2.6360739933028 -2.9580332534726 -2.6650320282592 -2.9157858805152 -3.0373917671752 -2.9230513026944 -2.8425308061724 -2.5937805984912 -2.8064738915476 -2.7860709202767 -2.4739078243956 -2.5760722492596 -2.6849476632433 -2.4189953053338 -2.6397209877783 -2.8827592289012 -2.8061496499516 -2.6521960281168 -2.7646209505779 -2.4415056625079 -2.8408971512191 -2.5237177833051 -2.9233745614399 -3.0579896459587 -2.9289061603461 -3.1497629033119 -2.8352987926703 -2.9878501844362 -2.9327501563923 -2.7439030953133 -2.628368598324 -2.83064085988 -2.6558747716405 -2.7279392319042 -2.6089580551812 -2.880061036979 -2.7722999814929 -2.9943684216319 -2.9449859105572 -2.7394069918742 -2.5928405651745 -3.033018220751 -2.6930892025232 -2.6891515693892 -2.677254070849 -2.9200019721629 -2.4756819331321 -2.5100197799334 -2.5009960520854 -2.5040516222953 -2.2621940938989 -2.4504856087607 -2.6445273943216 -3.0737903993382 -3.1222295543568 -3.0069713561942 -2.8041100186629 -2.7847576695555 -2.7638356745942 -2.866543009563 -2.921414128383 -2.9132874565435 -2.7321733745567 -3.1265178735954 -2.9385497466459 -3.4537458454639 -3.0067572024244 -2.9377514217452 -2.9767964725067 -2.985037055994 -3.0178805917968 -2.9817422607003 -2.9724338405057 -3.0905852890247 -3.0830677348798 -2.966574313308 -2.8792481267713 -2.890793042206 -2.8050715038713 -3.0609869242549 -3.0155166474075 -3.4807792868405 -3.0041147299776 -3.0571414574261 -2.9200240042353 -3.0632078475764 -2.9792076329451 -2.8700965395474 -2.690295487444 -2.9652178275947 -3.1819924586118 -3.0155192434826 -3.1286131437741 -3.2216569477145 -3.2788062454872 -3.2045454473219 -3.1904695071636 -3.2740574915126 -3.313605561332 -3.2176441195482 -3.0996573736377 -3.1821059582317 -3.6190555912736 -3.2550797215704 -3.1830895527968 -3.3992298770563 -3.3321029628849 -3.1991501781407 -3.0690656447927 -3.2836837051997 -3.3746785994953 -3.3040249981517 -3.2432845132968 -3.1547928970498 -3.2367991698846 -3.400320670157 -3.476979570997 -2.8972784537194 -3.940698068706 -3.5121459318921 -3.1158127206024 -3.3624310942362 -3.3751823572989 -3.277362175853 -3.1412394442797 -3.3499649561109 -3.3444209082383 -2.8541867343552 -2.8022616586859 -2.7797318937234 -2.7381077703517 -2.7650123817268 -2.8975605884651 -2.6822247964699 -2.6226111202982 -2.8386037394283 -2.7031246916369 -2.9474542582573 -2.8876560449399 -3.3384290666026 -2.5716695740468 -2.9618878308845 -2.7935015560594 -2.7318326734876 -2.6291390677244 -3.1235238542581 -3.0116772240784 -2.7434177517769 -2.6819995986325 -2.6211984005964 -2.2843440409614 -3.4259121031089 -3.4072020603109 -3.5158634569898 -3.163618936343 -3.3913014680043 -3.4295982663862 -3.4842100345689 -3.4368990454323 -3.2703540279247 -3.3238230935666 -3.386816927167 -3.311459323889 -3.2352016498279 -3.1852146941589 -3.2528305740534 -3.1346272870671 -3.3193614756811 -3.0042949454253 -3.4749626456493 -3.412492262206 -3.5330985974897 -3.5403158913198 -3.4699156047256 -3.5194550922651 -3.4791013182594 -3.5864072997372 -3.5347114939299 -3.459222608413 -3.5171669803132 -3.511787413126 -3.5391599985837 -3.5707842878239 -3.6953325608992 -3.5668481019384 -3.6427753922421 -3.4576322758264 -3.5807314828129 -3.5703618020771 -3.5519730641348 -3.6240527343712 -3.5959344957467 -3.6329049904841 -3.6044796892595 -3.6316371988713 -3.4583209781776 -3.415699365023 -3.6251083917336 -2.2994210110737 -3.6743494411213 -3.7197563354612 -2.9647967317748 -3.1914179482517 -3.3998285480571 -3.2691626744716 -3.0582864266025 -3.1309730552888 -3.2857950420178 -2.5488778176685 -3.0812799992386 -3.0848664036196 -2.6227969554524 -2.5740567811423 -2.5508385302741 -2.1664621174003 -2.1976734494298 -2.4759218832926 -3.4549060195345 -3.4854649336286 -3.5152629640982 -3.5340592708723 -3.7102678944027 -3.6652661023767 -3.564862916698 -3.6108794876209 -3.6223218306978 -3.6976559670374 -3.5420122872537 -3.4723044296344 -3.4836545736727 -3.4401000214184 -3.7240548585554 -3.6251581601135 -3.4085460713538 -3.3560751305709 -3.7029045885534 -3.6482700624881 -3.6627538366008 -3.6744620579334 -3.7407574706852 -3.7541410347837 -3.7351274769824 -3.6429360643933 -3.7697019550356 -3.6831225737814 -3.0411483926673 -3.7455169203169 -3.6728247801643 -3.6294190594593 -3.7741288323938 -3.7370419387019 -3.754790920322 -3.8278742038161 -3.6944619662927 -3.6730206402181 -3.694824077232 -3.6426287254091 -3.5785136510433 -3.5960020892615 -3.8039575858478 -2.3506004337184 -3.7253820322246 -3.6505761992542 -3.7469210346508 -3.683870564851 -2.6102735587757 -3.4666075214549 -3.8270049073175 -2.8932587221909 -2.575518911597 -2.4026066462613 -2.4959860309539 -2.2784155065628 -2.2612201502494 -2.0420979184301 -2.4654681923227 -2.0982993674265 -2.6993843515974 -2.4850556797466 -2.9756313089673 -2.6590210834881 -3.195687457221 -2.531464884366 -2.7765966927863 -2.2155237375485 -3.6411636025102 -3.7690985401968 -3.5875468353935 -3.6520082501371 -3.4803415149679 -3.4228253617654 -3.5162099326899 -3.5036230155276 -3.5771233275831 -3.5720073621987 -3.4279258460778 -2.6062338335857 -3.5928960790475 -3.5443706685042 -3.5464417733133 -3.598426710282 -3.4331674778806 -3.229190225883 -3.3641416119856 -3.2708462500375 -3.1782190873492 -3.2506239428343 -3.5146815383234 -3.578483361938 -2.4971832676697 -2.0656865081931 -2.4137581247906 -2.5790149871962 -2.4165911998442 -1.5835664555015 -2.1865071046915 -2.0061537613161 -2.3123141793651 -2.2381930555216 -2.240262344885 -2.2498522827141 -2.3295297493046 -2.2907434293522 -2.3484690051992 -2.9588068978489 -3.2851160818439 -3.6412321457853 -3.7178352151255 -3.7008588649385 -3.6984550408959 -4.0527496966938 -3.7576425402495 -3.6861644020366 -3.7398557307092 -3.4191280668923 -3.8175851884908 -3.7924089044518 -3.7153035951767 -3.7602839480301 -3.7486276739889 -3.9436289778434 -3.817957020663 -3.793405896646 -3.8128003209793 -3.8001282772885 -3.7996733784636 -3.3996948871425 -3.339090648554 -2.7669649385447 -3.1926226001873 -3.2975354687357 -3.3374856278896 -3.273998253104 -3.2272841937874 -3.33085555582 -3.2862220196274 -3.4318583062795 -3.2091090045011 -3.3531586322114 -3.3643149550791 -3.2774449899317 -2.8247891664678 -2.4041343607095 -2.2709137595983 -2.3084738932411 -2.332016497138 -2.2938747150133 -1.9828384049441 -2.3615569391147 -2.2613170867445 -1.5799877641221 -1.9618027988744 -2.4260060871662 -2.2371983302776 -2.3559495001752 -2.2301464475289 -2.2418272220002 -2.4241504736283 -2.512587836133 -2.5874260702669 -2.1584733489953 -2.6150604595778 -2.2978452761764 -2.1818566405123 -2.6830058979497 -2.5838940230224 -2.6220258062281 -2.4292361174895 -2.3253656923499 -2.0125630489589 -3.1299814704295 -3.2399353396223 -2.6931825880439 -2.6792038292968 -2.7941969627949 -2.4239050351 -2.7220825206651 -2.1742337791149 -3.0974938053633 -2.1584031870516 -2.7062194805236 -2.542656463608 -3.2587660692165 -2.5351066219291 -2.1384369934441 -1.6225451397491 -2.8183151878389 -2.7734381264846 -3.030719817108 -3.2285601329008 -2.5268329503085 -2.4216951346661 -2.7413237126129 -2.6093277354727 -3.8397848983382 -3.8429123548205 -3.879583378017 -3.8874528612104 -3.8767339497859 -3.7895523440959 -3.8624158639008 -3.8550008462873 -3.8506386124405 -3.842734555994 -3.8741138607701 -3.8854026320524 -3.8765721858543 -3.8083534329256 -3.9416368793145 -3.8510455546317 -3.8090584671676 -3.5585482700773 -3.9245877066615 -3.8394326134981 -3.8750343851542 -3.9201546439059 -3.2780971836702 -2.9941039480568 -3.3290241056252 -3.3355478891249 -3.387320724834 -3.6171386560484 -3.3229196184202 -3.2618923350963 -3.2539601371597 -2.8918953042084 -3.1732381619834 -3.1817458803991 -3.1600592142691 -3.1181247919852 -3.0715877263084 -3.0343465760468 -3.0857152633927 -2.8656752937597 -3.1457890613035 -3.1640502984525 -2.8330837693215 -2.8541205192685 -2.9424707642727 -2.8750135874383 -2.4510726405614 -2.5400831994769 -2.2774576898236 -2.0274072107753 -2.3712110577729 -2.4998352969603 -1.7479542901963 -2.5585328860337 -2.4432403443597 -2.2008479257129 -3.87363379443 -3.8453487262033 -3.925034127418 -3.9090196829005 -3.7966987851722 -3.8359347851923 -3.3360250510101 -2.6083213502626 -2.883038981719 -2.9739518992527 -2.9947415811838 -2.9120043030852 -3.2203852876515 -3.0616279751686 -3.1991931257767 -3.1288765789605 -3.0079417678747 -3.0551959062589 -2.7716306217907 -2.0880226628517 -2.1725294686391 -2.0740046107591 -2.2917142409161 -2.1496798874644 -2.1987874050401 -2.1066228028831 -2.1338764884287 -2.0955343558812 -2.2533805902231 -2.2595247436798 -2.2732235302747 -2.3443506562018 -2.2148097754749 -2.4677200404236 -2.4389863127115 -2.3398205339034 -2.1966813307316 -2.3533005671892 -2.2784087614967 -2.4812804435246 -2.1300786514955 -2.687915332932 -3.2900646850559 -2.0516236332126 -2.3984816241369 -2.6178253273083 -2.920625654973 -3.9153831212262 -3.415840421853 -3.3016268481024 -3.2326132807148 -3.62394594859 -2.2212866521462 -3.295372839545 -3.4118820858253 -3.309406656718 -3.3238461398029 -3.3962452729413 -3.4540796057152 -3.4570260754483 -3.3620486354419 -3.5402197386339 -3.4749683140225 -3.3960999571021 -3.4553301268423 -3.4870203021039 -3.3526538065541 -3.4346963732104 -3.4451354429187 -3.4886623534809 -3.537020662474 -3.5136152761604 -2.7345719762663 -3.5716132162796 -3.78167215171 -3.4143187376178 -3.5606972623791 -3.5109688473728 -3.5296186393003 -3.5133207973067 -3.6824760389454 -3.3963933890409 -3.4712344585216 -3.5279645639581 -3.5883059952494 -3.6415959818954 -3.6563315148602 -3.5598104018423 -3.7992216222974 -3.193029972392 -2.6267912665262 -3.8833241806146 -2.4803298277598 -3.8498940507376 -3.9206260381599 -3.9464639384876 -3.8627316469569 -3.7930486774634 -3.8713628999184 -4.0179464256272 -3.8839127497506 -3.9116857341075 -4.045031353076 -3.7813335457837 -3.9874951368992 -4.0585393008652 -2.7304153089996 -3.4644722492757 -3.5019745981482 -3.543804866491 -4.0445124021768 -3.6820979945533 -3.2563962371427 -3.0948872357783 -3.4436254073552 -2.5191911308067 -3.0394030820865 -2.9955130403377 -3.2814493618141 -3.3712353196202 -2.4310515950083 -2.3121193000821 -2.5979915494193 -2.6476369447431 -2.2102935424812 -2.2103837174643 -2.4305118251688 -1.6969458674913 -2.5140379416735 -3.3935988222657 -3.3127286058409 -3.223888757592 -1.9070993393967 -2.2946154489244 -2.7970001088703 -1.5491208296853 -3.9900861890801 -3.5022790518333 -3.7715468198804 -3.782717049706 -3.9147386458591 -3.9862315877257 -3.9835138015864 -4.0627429172152 -3.4630676956134 -3.3848650754317 -3.4994117931946 -3.4875627832288 -3.4929121237963 -3.4357981368754 -3.5895857683515 -3.136902675078 -3.3989103390223 -3.3828262277178 -3.407752084007 -3.3196720094629 -3.4324764428136 -2.9099469589756 -3.4468638281415 -3.289301081898 -3.4628123344743 -3.3857021507215 -3.2311077147455 -2.9302463128798 -3.5462152671108 -3.4332574435177 -3.4997724500809 -3.4426265391364 -4.10697401859 -4.137346986306 -3.4236675764181 -3.0959821265667 -2.8935342083395 -2.8254732785709 -2.938456144337 -2.9871026410167 -2.9434054757091 -3.0415062743067 -3.0776169174671 -3.139792453486 -2.6944675130195 -2.6920715840698 -2.7999410357292 -2.7545167786914 -2.9025720954545 -2.6810924618296 -2.8880231704868 -2.8105566334757 -2.9238980935783 -3.0165523623139 -3.0903393752122 -3.0089695829073 -3.3291056951631 -2.8539216765001 -3.9915885681329 -3.8249657657225 -4.0908014823574 -4.0908413445264 -3.5145021891999 -4.1208354379002 -4.1158073699699 -4.1123696709429 -3.7939577254562 -3.7030696673166 -4.0781252686397 -4.0061706814364 -4.0981911398699 -3.7798304865301 -4.1012378135606 -3.632583972259 -3.7522282113435 -3.7345151612699 -4.0914393302295 -4.1280868959913 -3.7987392713897 -4.1592139095556 -3.6044603830004 -4.0129848829087 -4.1997067059858 -4.356214709275 -3.691050523138 -3.7052927167341 -3.8866696520741 -3.9113065378399 -3.9085545453742 -3.9525917999813 -3.9025475828066 -3.917243576705 -3.9559032212807 -3.9517978413036 -3.9223093494982 -3.9787552752964 -3.7706461173416 -4.0917131081478 -4.093345664089 -3.7505456738124 -3.963798710696 -4.0596302626988 -3.987140470131 -4.0189763813504 -4.0756885268033 -4.0762906799475 -3.9586066212427 -4.0290400866286 -3.9513621226331 -3.9943612497333 -3.9956279410569 -4.0168714460304 -3.9479216175496 -3.9625832401536 -3.972299489605 -3.9716092460296 -4.0084650218369 -3.9832766360088 -4.0022496439546 -4.0667905016092 -4.0077532539587 -4.0253130287706 -4.0492677288278 -4.1049639873393 -4.0198032188326 -3.5391831362015 -4.0732210018196 -4.0480787464156 -4.0321639577946 -4.0689227303256 -3.8959500963863 -4.0448508995858 -3.4686236976504 -2.2247640087209 -3.0727749186719 -2.9331543617099 -3.2616207730604 -2.9815368197637 -2.8962331859104 -2.8587205760549 -2.9905827661873 -3.1461107113417 -3.0055982343578 -2.9893372574624 -2.9955312943283 -3.0578140319411 -3.0364129178976 -3.0881538007683 -3.2706281042202 -3.0549404192855 -2.8467552235938 -2.8002496893851 -3.0829433352705 -3.0297433778621 -2.8148862673275 -2.6817441349025 -3.2497638876354 -2.949348874793 -2.9386449964029 -2.5406916285828 -3.0113695316298 -2.935872704154 -3.1803863938888 -3.1796646512461 -3.3295882595088 -3.3679882422256 -3.2893112949063 -3.1633064346727 -3.1354193953483 -3.254234579086 -3.3598831315604 -3.3916276908564 -4.1599970447154 -3.6329898455153 -4.0975472511823 -4.1480982258407 -4.1248663706853 -4.2821505483782 -4.2110657275468 -4.1144883787987 -4.1898089636196 -3.502691080194 -4.1245817699247 -4.0262181689324 -3.8298692191478 -3.1553054136962 -4.0591892036027 -4.2816621205204 -4.1706182866249 -3.6721102131199 -3.4216623345628 -4.078290833991 -4.0234431454987 -4.0622136144585 -3.9803309352079 -4.124960916402 -4.1181896747204 -4.0000349628999 -3.9875163981761 -3.896850422696 -4.3353750462927 -3.9934357431541 -4.0268732676936 -4.0375577927656 -4.0624220799558 -4.0556166514092 -4.0241581469258 -3.9943143967645 -4.2813988757825 -4.1580404002058 -4.2194900227258 -4.0338661981121 -4.0687638353427 -3.0129484796042 -4.2106605753206 -4.1419713320895 -3.6730032524874 -4.1070806560821 -3.5225133739396 -4.0873094204526 -3.9550473287509 -3.4446250060961 -3.3752849240587 -4.0525282986177 -3.5819949056977 -3.33962056028 -3.169917056018 -3.4480622363734 -3.4749071364159 -3.4765768043519 -3.7934663220015 -3.2720841557271 -3.4757242758859 -4.0270019076611 -3.638653954533 -4.1370079167594 -3.533038226489 -3.5140262677288 -4.0672508152858 -3.5649308364683 -3.8197015818273 -3.8977790590761 -4.0877190361747 -3.4777261834647 -3.642974222934 -3.5313459936634 -3.391016219516 -3.2899069081302 -3.4194405566684 -3.3167325041651 -3.2856507565277 -3.3601519746992 -3.4955533544729 -3.1246726271003 -3.3046418600447 -3.2629832922695 -4.0569750407317 -2.3941248510876 -3.2768492121034 -3.2111689246916 -3.3998612254841 -2.98856345449 -3.2636138518118 -3.2027621356135 -3.1804327950283 -3.190060895334 -3.1324671068341 -3.2191420860192 -3.3410484384499 -3.2434222472781 -3.5777907624413 -3.418543917435 -3.1890388877592 -3.1004913515615 -2.9689941496981 -2.8723872371256 -2.8502698863747 -2.7857590363492 -2.8910152248974 -2.8824713299321 -2.8336972264319 -2.9154861586413 -3.1441621694757 -3.2058068985348 -3.2084871738831 -3.1754110982398 -3.5895444477942 -3.5979678369833 -4.0235146620746 -3.9799791408223 -3.7373302750702 -3.7494897302189 -3.9865023579752 -3.9668864937588 -2.8122054954596 -3.5880846374059 -3.6559354766618 -3.6537234665283 -3.5625820761341 -3.5885123100912 -3.590202885612 -3.6138741711289 -3.6158401751146 -3.664066858603 -3.7310821813457 -3.5736861470254 -3.6820961527206 -3.6412075931356 -3.7379928628788 -3.6626311922904 -3.6240201855121 -3.5769288616599 -3.6356640896178 -3.6205290007208 -3.7303862633811 -3.6408339808415 -3.6829879511438 -3.6469587875726 -3.7814286196232 -3.668616085924 -3.5648369680047 -3.5752308880973 -3.7795957625569 -3.6219813549632 -3.6127129194525 -3.5843145915085 -3.6760095235446 -3.6138200080342 -3.6236629084346 -3.6415486205648 -3.6940758310389 -3.6516416621787 -3.6527669092639 -3.6069561466066 -3.6314057699795 -3.6759214084359 -3.6842276203359 -3.6109769274531 -3.7879806782809 -3.6709346098425 -3.6405235588062 -3.5738470481612 -3.7077096168814 -3.6850448807038 -3.6964334333067 -3.5170054137407 -3.6021039824704 -3.6183843084276 -3.7122435051888 -3.6878156576549 -3.7062905168553 -3.7170219956638 -3.5514520807049 -3.5595759954666 -3.6918577689643 -3.435522932558 -3.7352228330809 -3.593402390942 -3.5528909739023 -3.4629997311828 -3.6272612131077 -3.4825546163031 -3.5003780357655 -3.5387847208768 -3.4367002074912 -3.4596400609207 -3.397345904777 -3.5008056878255 -3.426154903937 -3.3869534177112 -3.5357229214598 -3.4678966572038 -3.510197672506 -3.4445058755573 -3.5720006439708 -3.4270015543843 -3.488978641359 -3.4910213909965 -3.8074859862056 -3.751490234757 -3.5444144370724 -2.0975001697229 -4.1231094920304 -4.1628873722108 -3.7282198887708 -3.941996682501 -2.993853547279 -2.932139770286 -3.0347661834688 -3.0788264319615 -2.9298076659063 -2.4452932553294 -2.988708307103 -3.1346988587622 -3.0042224465471 -2.8890268830823 -3.2656852075061 -3.2940314909395 -2.081835004782 -2.4349060049594 -3.5301703181263 -3.5901480352277 -3.5716852734866 -3.5369441027272 -3.5444601047017 -3.5941124846925 -3.742601365865 -3.7192667066996 -3.9086937498877 -3.7845513602957 -3.9804785769054 -4.0191696940567 -3.7189616746032 -3.7371911176327 -3.7538151415305 -3.8021662903211 -3.7505393530669 -3.7540607154941 -3.8526222544927 -3.8026288945439 -3.78725230328 -3.8280509910736 -4.1185149963648 -3.8247389306543 -3.8057995399835 -3.8505049280893 -3.7964396903827 -3.8357601409823 -4.0125548025042 -3.8312519149591 -4.1390421209724 -3.7947405181094 -3.5955104127717 -3.7307884714342 -3.6188684456123 -3.6825799638881 -3.6223241706258 -3.4664948745133 -4.1077181415403 -4.1204904926593 -4.2469009656106 -4.1309242053742 -4.1033087950181 -4.1533347040701 -4.1380336528709 -4.0912689659779 -4.05351